+ 0.4 0 3 tcp 40 ------- 0 0.0 6.0 0 0
- 0.4 0 3 tcp 40 ------- 0 0.0 6.0 0 0
r 0.405032 0 3 tcp 40 ------- 0 0.0 6.0 0 0
+ 0.405032 3 4 tcp 40 ------- 0 0.0 6.0 0 0
- 0.405032 3 4 tcp 40 ------- 0 0.0 6.0 0 0
r 0.420245 3 4 tcp 40 ------- 0 0.0 6.0 0 0
+ 0.420245 4 5 tcp 40 ------- 0 0.0 6.0 0 0
- 0.420245 4 5 tcp 40 ------- 0 0.0 6.0 0 0
r 0.435459 4 5 tcp 40 ------- 0 0.0 6.0 0 0
+ 0.435459 5 6 tcp 40 ------- 0 0.0 6.0 0 0
- 0.435459 5 6 tcp 40 ------- 0 0.0 6.0 0 0
r 0.440491 5 6 tcp 40 ------- 0 0.0 6.0 0 0
+ 0.440491 6 5 ack 40 ------- 0 6.0 0.0 0 1
- 0.440491 6 5 ack 40 ------- 0 6.0 0.0 0 1
r 0.445523 6 5 ack 40 ------- 0 6.0 0.0 0 1
+ 0.445523 5 4 ack 40 ------- 0 6.0 0.0 0 1
- 0.445523 5 4 ack 40 ------- 0 6.0 0.0 0 1
r 0.460736 5 4 ack 40 ------- 0 6.0 0.0 0 1
+ 0.460736 4 3 ack 40 ------- 0 6.0 0.0 0 1
- 0.460736 4 3 ack 40 ------- 0 6.0 0.0 0 1
r 0.475949 4 3 ack 40 ------- 0 6.0 0.0 0 1
+ 0.475949 3 0 ack 40 ------- 0 6.0 0.0 0 1
- 0.475949 3 0 ack 40 ------- 0 6.0 0.0 0 1
r 0.480981 3 0 ack 40 ------- 0 6.0 0.0 0 1
+ 0.480981 0 3 tcp 1040 ------- 0 0.0 6.0 1 2
- 0.480981 0 3 tcp 1040 ------- 0 0.0 6.0 1 2
+ 0.480981 0 3 tcp 1040 ------- 0 0.0 6.0 2 3
- 0.481813 0 3 tcp 1040 ------- 0 0.0 6.0 2 3
r 0.486813 0 3 tcp 1040 ------- 0 0.0 6.0 1 2
+ 0.486813 3 4 tcp 1040 ------- 0 0.0 6.0 1 2
- 0.486813 3 4 tcp 1040 ------- 0 0.0 6.0 1 2
r 0.487645 0 3 tcp 1040 ------- 0 0.0 6.0 2 3
+ 0.487645 3 4 tcp 1040 ------- 0 0.0 6.0 2 3
- 0.49236 3 4 tcp 1040 ------- 0 0.0 6.0 2 3
r 0.50736 3 4 tcp 1040 ------- 0 0.0 6.0 1 2
+ 0.50736 4 5 tcp 1040 ------- 0 0.0 6.0 1 2
- 0.50736 4 5 tcp 1040 ------- 0 0.0 6.0 1 2
r 0.512907 3 4 tcp 1040 ------- 0 0.0 6.0 2 3
+ 0.512907 4 5 tcp 1040 ------- 0 0.0 6.0 2 3
- 0.512907 4 5 tcp 1040 ------- 0 0.0 6.0 2 3
r 0.527907 4 5 tcp 1040 ------- 0 0.0 6.0 1 2
+ 0.527907 5 6 tcp 1040 ------- 0 0.0 6.0 1 2
- 0.527907 5 6 tcp 1040 ------- 0 0.0 6.0 1 2
r 0.533453 4 5 tcp 1040 ------- 0 0.0 6.0 2 3
+ 0.533453 5 6 tcp 1040 ------- 0 0.0 6.0 2 3
- 0.533453 5 6 tcp 1040 ------- 0 0.0 6.0 2 3
r 0.533739 5 6 tcp 1040 ------- 0 0.0 6.0 1 2
+ 0.533739 6 5 ack 40 ------- 0 6.0 0.0 1 4
- 0.533739 6 5 ack 40 ------- 0 6.0 0.0 1 4
r 0.538771 6 5 ack 40 ------- 0 6.0 0.0 1 4
+ 0.538771 5 4 ack 40 ------- 0 6.0 0.0 1 4
- 0.538771 5 4 ack 40 ------- 0 6.0 0.0 1 4
r 0.539285 5 6 tcp 1040 ------- 0 0.0 6.0 2 3
+ 0.539285 6 5 ack 40 ------- 0 6.0 0.0 2 5
- 0.539285 6 5 ack 40 ------- 0 6.0 0.0 2 5
r 0.544317 6 5 ack 40 ------- 0 6.0 0.0 2 5
+ 0.544317 5 4 ack 40 ------- 0 6.0 0.0 2 5
- 0.544317 5 4 ack 40 ------- 0 6.0 0.0 2 5
r 0.553984 5 4 ack 40 ------- 0 6.0 0.0 1 4
+ 0.553984 4 3 ack 40 ------- 0 6.0 0.0 1 4
- 0.553984 4 3 ack 40 ------- 0 6.0 0.0 1 4
r 0.559531 5 4 ack 40 ------- 0 6.0 0.0 2 5
+ 0.559531 4 3 ack 40 ------- 0 6.0 0.0 2 5
- 0.559531 4 3 ack 40 ------- 0 6.0 0.0 2 5
r 0.569197 4 3 ack 40 ------- 0 6.0 0.0 1 4
+ 0.569197 3 0 ack 40 ------- 0 6.0 0.0 1 4
- 0.569197 3 0 ack 40 ------- 0 6.0 0.0 1 4
r 0.574229 3 0 ack 40 ------- 0 6.0 0.0 1 4
+ 0.574229 0 3 tcp 1040 ------- 0 0.0 6.0 3 6
- 0.574229 0 3 tcp 1040 ------- 0 0.0 6.0 3 6
+ 0.574229 0 3 tcp 1040 ------- 0 0.0 6.0 4 7
r 0.574744 4 3 ack 40 ------- 0 6.0 0.0 2 5
+ 0.574744 3 0 ack 40 ------- 0 6.0 0.0 2 5
- 0.574744 3 0 ack 40 ------- 0 6.0 0.0 2 5
- 0.575061 0 3 tcp 1040 ------- 0 0.0 6.0 4 7
r 0.579776 3 0 ack 40 ------- 0 6.0 0.0 2 5
+ 0.579776 0 3 tcp 1040 ------- 0 0.0 6.0 5 8
- 0.579776 0 3 tcp 1040 ------- 0 0.0 6.0 5 8
+ 0.579776 0 3 tcp 1040 ------- 0 0.0 6.0 6 9
r 0.580061 0 3 tcp 1040 ------- 0 0.0 6.0 3 6
+ 0.580061 3 4 tcp 1040 ------- 0 0.0 6.0 3 6
- 0.580061 3 4 tcp 1040 ------- 0 0.0 6.0 3 6
- 0.580608 0 3 tcp 1040 ------- 0 0.0 6.0 6 9
r 0.580893 0 3 tcp 1040 ------- 0 0.0 6.0 4 7
+ 0.580893 3 4 tcp 1040 ------- 0 0.0 6.0 4 7
r 0.585608 0 3 tcp 1040 ------- 0 0.0 6.0 5 8
+ 0.585608 3 4 tcp 1040 ------- 0 0.0 6.0 5 8
- 0.585608 3 4 tcp 1040 ------- 0 0.0 6.0 4 7
r 0.58644 0 3 tcp 1040 ------- 0 0.0 6.0 6 9
+ 0.58644 3 4 tcp 1040 ------- 0 0.0 6.0 6 9
- 0.591155 3 4 tcp 1040 ------- 0 0.0 6.0 5 8
- 0.596701 3 4 tcp 1040 ------- 0 0.0 6.0 6 9
+ 0.6 1 3 tcp 40 ------- 0 1.0 7.0 0 10
- 0.6 1 3 tcp 40 ------- 0 1.0 7.0 0 10
r 0.600608 3 4 tcp 1040 ------- 0 0.0 6.0 3 6
+ 0.600608 4 5 tcp 1040 ------- 0 0.0 6.0 3 6
- 0.600608 4 5 tcp 1040 ------- 0 0.0 6.0 3 6
r 0.605032 1 3 tcp 40 ------- 0 1.0 7.0 0 10
+ 0.605032 3 4 tcp 40 ------- 0 1.0 7.0 0 10
- 0.605032 3 4 tcp 40 ------- 0 1.0 7.0 0 10
r 0.606155 3 4 tcp 1040 ------- 0 0.0 6.0 4 7
+ 0.606155 4 5 tcp 1040 ------- 0 0.0 6.0 4 7
- 0.606155 4 5 tcp 1040 ------- 0 0.0 6.0 4 7
r 0.611701 3 4 tcp 1040 ------- 0 0.0 6.0 5 8
+ 0.611701 4 5 tcp 1040 ------- 0 0.0 6.0 5 8
- 0.611701 4 5 tcp 1040 ------- 0 0.0 6.0 5 8
r 0.617248 3 4 tcp 1040 ------- 0 0.0 6.0 6 9
+ 0.617248 4 5 tcp 1040 ------- 0 0.0 6.0 6 9
- 0.617248 4 5 tcp 1040 ------- 0 0.0 6.0 6 9
r 0.620245 3 4 tcp 40 ------- 0 1.0 7.0 0 10
+ 0.620245 4 5 tcp 40 ------- 0 1.0 7.0 0 10
r 0.621155 4 5 tcp 1040 ------- 0 0.0 6.0 3 6
+ 0.621155 5 6 tcp 1040 ------- 0 0.0 6.0 3 6
- 0.621155 5 6 tcp 1040 ------- 0 0.0 6.0 3 6
- 0.622795 4 5 tcp 40 ------- 0 1.0 7.0 0 10
r 0.626701 4 5 tcp 1040 ------- 0 0.0 6.0 4 7
+ 0.626701 5 6 tcp 1040 ------- 0 0.0 6.0 4 7
- 0.626701 5 6 tcp 1040 ------- 0 0.0 6.0 4 7
r 0.626987 5 6 tcp 1040 ------- 0 0.0 6.0 3 6
+ 0.626987 6 5 ack 40 ------- 0 6.0 0.0 3 11
- 0.626987 6 5 ack 40 ------- 0 6.0 0.0 3 11
r 0.632019 6 5 ack 40 ------- 0 6.0 0.0 3 11
+ 0.632019 5 4 ack 40 ------- 0 6.0 0.0 3 11
- 0.632019 5 4 ack 40 ------- 0 6.0 0.0 3 11
r 0.632248 4 5 tcp 1040 ------- 0 0.0 6.0 5 8
+ 0.632248 5 6 tcp 1040 ------- 0 0.0 6.0 5 8
- 0.632248 5 6 tcp 1040 ------- 0 0.0 6.0 5 8
r 0.632533 5 6 tcp 1040 ------- 0 0.0 6.0 4 7
+ 0.632533 6 5 ack 40 ------- 0 6.0 0.0 4 12
- 0.632533 6 5 ack 40 ------- 0 6.0 0.0 4 12
r 0.637565 6 5 ack 40 ------- 0 6.0 0.0 4 12
+ 0.637565 5 4 ack 40 ------- 0 6.0 0.0 4 12
- 0.637565 5 4 ack 40 ------- 0 6.0 0.0 4 12
r 0.637795 4 5 tcp 1040 ------- 0 0.0 6.0 6 9
+ 0.637795 5 6 tcp 1040 ------- 0 0.0 6.0 6 9
- 0.637795 5 6 tcp 1040 ------- 0 0.0 6.0 6 9
r 0.638008 4 5 tcp 40 ------- 0 1.0 7.0 0 10
+ 0.638008 5 7 tcp 40 ------- 0 1.0 7.0 0 10
- 0.638008 5 7 tcp 40 ------- 0 1.0 7.0 0 10
r 0.63808 5 6 tcp 1040 ------- 0 0.0 6.0 5 8
+ 0.63808 6 5 ack 40 ------- 0 6.0 0.0 5 13
- 0.63808 6 5 ack 40 ------- 0 6.0 0.0 5 13
r 0.64304 5 7 tcp 40 ------- 0 1.0 7.0 0 10
+ 0.64304 7 5 ack 40 ------- 0 7.0 1.0 0 14
- 0.64304 7 5 ack 40 ------- 0 7.0 1.0 0 14
r 0.643112 6 5 ack 40 ------- 0 6.0 0.0 5 13
+ 0.643112 5 4 ack 40 ------- 0 6.0 0.0 5 13
- 0.643112 5 4 ack 40 ------- 0 6.0 0.0 5 13
r 0.643627 5 6 tcp 1040 ------- 0 0.0 6.0 6 9
+ 0.643627 6 5 ack 40 ------- 0 6.0 0.0 6 15
- 0.643627 6 5 ack 40 ------- 0 6.0 0.0 6 15
r 0.647232 5 4 ack 40 ------- 0 6.0 0.0 3 11
+ 0.647232 4 3 ack 40 ------- 0 6.0 0.0 3 11
- 0.647232 4 3 ack 40 ------- 0 6.0 0.0 3 11
r 0.648072 7 5 ack 40 ------- 0 7.0 1.0 0 14
+ 0.648072 5 4 ack 40 ------- 0 7.0 1.0 0 14
- 0.648072 5 4 ack 40 ------- 0 7.0 1.0 0 14
r 0.648659 6 5 ack 40 ------- 0 6.0 0.0 6 15
+ 0.648659 5 4 ack 40 ------- 0 6.0 0.0 6 15
- 0.648659 5 4 ack 40 ------- 0 6.0 0.0 6 15
r 0.652779 5 4 ack 40 ------- 0 6.0 0.0 4 12
+ 0.652779 4 3 ack 40 ------- 0 6.0 0.0 4 12
- 0.652779 4 3 ack 40 ------- 0 6.0 0.0 4 12
r 0.658325 5 4 ack 40 ------- 0 6.0 0.0 5 13
+ 0.658325 4 3 ack 40 ------- 0 6.0 0.0 5 13
- 0.658325 4 3 ack 40 ------- 0 6.0 0.0 5 13
r 0.662445 4 3 ack 40 ------- 0 6.0 0.0 3 11
+ 0.662445 3 0 ack 40 ------- 0 6.0 0.0 3 11
- 0.662445 3 0 ack 40 ------- 0 6.0 0.0 3 11
r 0.663285 5 4 ack 40 ------- 0 7.0 1.0 0 14
+ 0.663285 4 3 ack 40 ------- 0 7.0 1.0 0 14
- 0.663285 4 3 ack 40 ------- 0 7.0 1.0 0 14
r 0.663872 5 4 ack 40 ------- 0 6.0 0.0 6 15
+ 0.663872 4 3 ack 40 ------- 0 6.0 0.0 6 15
- 0.663872 4 3 ack 40 ------- 0 6.0 0.0 6 15
r 0.667477 3 0 ack 40 ------- 0 6.0 0.0 3 11
+ 0.667477 0 3 tcp 1040 ------- 0 0.0 6.0 7 16
- 0.667477 0 3 tcp 1040 ------- 0 0.0 6.0 7 16
+ 0.667477 0 3 tcp 1040 ------- 0 0.0 6.0 8 17
r 0.667992 4 3 ack 40 ------- 0 6.0 0.0 4 12
+ 0.667992 3 0 ack 40 ------- 0 6.0 0.0 4 12
- 0.667992 3 0 ack 40 ------- 0 6.0 0.0 4 12
- 0.668309 0 3 tcp 1040 ------- 0 0.0 6.0 8 17
r 0.673024 3 0 ack 40 ------- 0 6.0 0.0 4 12
+ 0.673024 0 3 tcp 1040 ------- 0 0.0 6.0 9 18
- 0.673024 0 3 tcp 1040 ------- 0 0.0 6.0 9 18
+ 0.673024 0 3 tcp 1040 ------- 0 0.0 6.0 10 19
r 0.673309 0 3 tcp 1040 ------- 0 0.0 6.0 7 16
+ 0.673309 3 4 tcp 1040 ------- 0 0.0 6.0 7 16
- 0.673309 3 4 tcp 1040 ------- 0 0.0 6.0 7 16
r 0.673539 4 3 ack 40 ------- 0 6.0 0.0 5 13
+ 0.673539 3 0 ack 40 ------- 0 6.0 0.0 5 13
- 0.673539 3 0 ack 40 ------- 0 6.0 0.0 5 13
- 0.673856 0 3 tcp 1040 ------- 0 0.0 6.0 10 19
r 0.674141 0 3 tcp 1040 ------- 0 0.0 6.0 8 17
+ 0.674141 3 4 tcp 1040 ------- 0 0.0 6.0 8 17
r 0.678499 4 3 ack 40 ------- 0 7.0 1.0 0 14
+ 0.678499 3 1 ack 40 ------- 0 7.0 1.0 0 14
- 0.678499 3 1 ack 40 ------- 0 7.0 1.0 0 14
r 0.678571 3 0 ack 40 ------- 0 6.0 0.0 5 13
+ 0.678571 0 3 tcp 1040 ------- 0 0.0 6.0 11 20
- 0.678571 0 3 tcp 1040 ------- 0 0.0 6.0 11 20
+ 0.678571 0 3 tcp 1040 ------- 0 0.0 6.0 12 21
r 0.678856 0 3 tcp 1040 ------- 0 0.0 6.0 9 18
+ 0.678856 3 4 tcp 1040 ------- 0 0.0 6.0 9 18
- 0.678856 3 4 tcp 1040 ------- 0 0.0 6.0 8 17
r 0.679085 4 3 ack 40 ------- 0 6.0 0.0 6 15
+ 0.679085 3 0 ack 40 ------- 0 6.0 0.0 6 15
- 0.679085 3 0 ack 40 ------- 0 6.0 0.0 6 15
- 0.679403 0 3 tcp 1040 ------- 0 0.0 6.0 12 21
r 0.679688 0 3 tcp 1040 ------- 0 0.0 6.0 10 19
+ 0.679688 3 4 tcp 1040 ------- 0 0.0 6.0 10 19
r 0.683531 3 1 ack 40 ------- 0 7.0 1.0 0 14
+ 0.683531 1 3 tcp 1040 ------- 0 1.0 7.0 1 22
- 0.683531 1 3 tcp 1040 ------- 0 1.0 7.0 1 22
+ 0.683531 1 3 tcp 1040 ------- 0 1.0 7.0 2 23
r 0.684117 3 0 ack 40 ------- 0 6.0 0.0 6 15
+ 0.684117 0 3 tcp 1040 ------- 0 0.0 6.0 13 24
- 0.684117 0 3 tcp 1040 ------- 0 0.0 6.0 13 24
+ 0.684117 0 3 tcp 1040 ------- 0 0.0 6.0 14 25
- 0.684363 1 3 tcp 1040 ------- 0 1.0 7.0 2 23
r 0.684403 0 3 tcp 1040 ------- 0 0.0 6.0 11 20
+ 0.684403 3 4 tcp 1040 ------- 0 0.0 6.0 11 20
- 0.684403 3 4 tcp 1040 ------- 0 0.0 6.0 9 18
- 0.684949 0 3 tcp 1040 ------- 0 0.0 6.0 14 25
r 0.685235 0 3 tcp 1040 ------- 0 0.0 6.0 12 21
+ 0.685235 3 4 tcp 1040 ------- 0 0.0 6.0 12 21
r 0.689363 1 3 tcp 1040 ------- 0 1.0 7.0 1 22
+ 0.689363 3 4 tcp 1040 ------- 0 1.0 7.0 1 22
r 0.689949 0 3 tcp 1040 ------- 0 0.0 6.0 13 24
+ 0.689949 3 4 tcp 1040 ------- 0 0.0 6.0 13 24
- 0.689949 3 4 tcp 1040 ------- 0 0.0 6.0 10 19
r 0.690195 1 3 tcp 1040 ------- 0 1.0 7.0 2 23
+ 0.690195 3 4 tcp 1040 ------- 0 1.0 7.0 2 23
r 0.690781 0 3 tcp 1040 ------- 0 0.0 6.0 14 25
+ 0.690781 3 4 tcp 1040 ------- 0 0.0 6.0 14 25
r 0.693856 3 4 tcp 1040 ------- 0 0.0 6.0 7 16
+ 0.693856 4 5 tcp 1040 ------- 0 0.0 6.0 7 16
- 0.693856 4 5 tcp 1040 ------- 0 0.0 6.0 7 16
- 0.695496 3 4 tcp 1040 ------- 0 0.0 6.0 11 20
r 0.699403 3 4 tcp 1040 ------- 0 0.0 6.0 8 17
+ 0.699403 4 5 tcp 1040 ------- 0 0.0 6.0 8 17
- 0.699403 4 5 tcp 1040 ------- 0 0.0 6.0 8 17
- 0.701043 3 4 tcp 1040 ------- 0 0.0 6.0 12 21
r 0.704949 3 4 tcp 1040 ------- 0 0.0 6.0 9 18
+ 0.704949 4 5 tcp 1040 ------- 0 0.0 6.0 9 18
- 0.704949 4 5 tcp 1040 ------- 0 0.0 6.0 9 18
- 0.706589 3 4 tcp 1040 ------- 0 1.0 7.0 1 22
r 0.710496 3 4 tcp 1040 ------- 0 0.0 6.0 10 19
+ 0.710496 4 5 tcp 1040 ------- 0 0.0 6.0 10 19
- 0.710496 4 5 tcp 1040 ------- 0 0.0 6.0 10 19
- 0.712136 3 4 tcp 1040 ------- 0 0.0 6.0 13 24
r 0.714403 4 5 tcp 1040 ------- 0 0.0 6.0 7 16
+ 0.714403 5 6 tcp 1040 ------- 0 0.0 6.0 7 16
- 0.714403 5 6 tcp 1040 ------- 0 0.0 6.0 7 16
r 0.716043 3 4 tcp 1040 ------- 0 0.0 6.0 11 20
+ 0.716043 4 5 tcp 1040 ------- 0 0.0 6.0 11 20
- 0.716043 4 5 tcp 1040 ------- 0 0.0 6.0 11 20
- 0.717683 3 4 tcp 1040 ------- 0 1.0 7.0 2 23
r 0.719949 4 5 tcp 1040 ------- 0 0.0 6.0 8 17
+ 0.719949 5 6 tcp 1040 ------- 0 0.0 6.0 8 17
- 0.719949 5 6 tcp 1040 ------- 0 0.0 6.0 8 17
r 0.720235 5 6 tcp 1040 ------- 0 0.0 6.0 7 16
+ 0.720235 6 5 ack 40 ------- 0 6.0 0.0 7 26
- 0.720235 6 5 ack 40 ------- 0 6.0 0.0 7 26
r 0.721589 3 4 tcp 1040 ------- 0 0.0 6.0 12 21
+ 0.721589 4 5 tcp 1040 ------- 0 0.0 6.0 12 21
- 0.721589 4 5 tcp 1040 ------- 0 0.0 6.0 12 21
- 0.723229 3 4 tcp 1040 ------- 0 0.0 6.0 14 25
r 0.725267 6 5 ack 40 ------- 0 6.0 0.0 7 26
+ 0.725267 5 4 ack 40 ------- 0 6.0 0.0 7 26
- 0.725267 5 4 ack 40 ------- 0 6.0 0.0 7 26
r 0.725496 4 5 tcp 1040 ------- 0 0.0 6.0 9 18
+ 0.725496 5 6 tcp 1040 ------- 0 0.0 6.0 9 18
- 0.725496 5 6 tcp 1040 ------- 0 0.0 6.0 9 18
r 0.725781 5 6 tcp 1040 ------- 0 0.0 6.0 8 17
+ 0.725781 6 5 ack 40 ------- 0 6.0 0.0 8 27
- 0.725781 6 5 ack 40 ------- 0 6.0 0.0 8 27
r 0.727136 3 4 tcp 1040 ------- 0 1.0 7.0 1 22
+ 0.727136 4 5 tcp 1040 ------- 0 1.0 7.0 1 22
- 0.727136 4 5 tcp 1040 ------- 0 1.0 7.0 1 22
r 0.730813 6 5 ack 40 ------- 0 6.0 0.0 8 27
+ 0.730813 5 4 ack 40 ------- 0 6.0 0.0 8 27
- 0.730813 5 4 ack 40 ------- 0 6.0 0.0 8 27
r 0.731043 4 5 tcp 1040 ------- 0 0.0 6.0 10 19
+ 0.731043 5 6 tcp 1040 ------- 0 0.0 6.0 10 19
- 0.731043 5 6 tcp 1040 ------- 0 0.0 6.0 10 19
r 0.731328 5 6 tcp 1040 ------- 0 0.0 6.0 9 18
+ 0.731328 6 5 ack 40 ------- 0 6.0 0.0 9 28
- 0.731328 6 5 ack 40 ------- 0 6.0 0.0 9 28
r 0.732683 3 4 tcp 1040 ------- 0 0.0 6.0 13 24
+ 0.732683 4 5 tcp 1040 ------- 0 0.0 6.0 13 24
- 0.732683 4 5 tcp 1040 ------- 0 0.0 6.0 13 24
r 0.73636 6 5 ack 40 ------- 0 6.0 0.0 9 28
+ 0.73636 5 4 ack 40 ------- 0 6.0 0.0 9 28
- 0.73636 5 4 ack 40 ------- 0 6.0 0.0 9 28
r 0.736589 4 5 tcp 1040 ------- 0 0.0 6.0 11 20
+ 0.736589 5 6 tcp 1040 ------- 0 0.0 6.0 11 20
- 0.736589 5 6 tcp 1040 ------- 0 0.0 6.0 11 20
r 0.736875 5 6 tcp 1040 ------- 0 0.0 6.0 10 19
+ 0.736875 6 5 ack 40 ------- 0 6.0 0.0 10 29
- 0.736875 6 5 ack 40 ------- 0 6.0 0.0 10 29
r 0.738229 3 4 tcp 1040 ------- 0 1.0 7.0 2 23
+ 0.738229 4 5 tcp 1040 ------- 0 1.0 7.0 2 23
- 0.738229 4 5 tcp 1040 ------- 0 1.0 7.0 2 23
r 0.74048 5 4 ack 40 ------- 0 6.0 0.0 7 26
+ 0.74048 4 3 ack 40 ------- 0 6.0 0.0 7 26
- 0.74048 4 3 ack 40 ------- 0 6.0 0.0 7 26
r 0.741907 6 5 ack 40 ------- 0 6.0 0.0 10 29
+ 0.741907 5 4 ack 40 ------- 0 6.0 0.0 10 29
- 0.741907 5 4 ack 40 ------- 0 6.0 0.0 10 29
r 0.742136 4 5 tcp 1040 ------- 0 0.0 6.0 12 21
+ 0.742136 5 6 tcp 1040 ------- 0 0.0 6.0 12 21
- 0.742136 5 6 tcp 1040 ------- 0 0.0 6.0 12 21
r 0.742421 5 6 tcp 1040 ------- 0 0.0 6.0 11 20
+ 0.742421 6 5 ack 40 ------- 0 6.0 0.0 11 30
- 0.742421 6 5 ack 40 ------- 0 6.0 0.0 11 30
r 0.743776 3 4 tcp 1040 ------- 0 0.0 6.0 14 25
+ 0.743776 4 5 tcp 1040 ------- 0 0.0 6.0 14 25
- 0.743776 4 5 tcp 1040 ------- 0 0.0 6.0 14 25
r 0.746027 5 4 ack 40 ------- 0 6.0 0.0 8 27
+ 0.746027 4 3 ack 40 ------- 0 6.0 0.0 8 27
- 0.746027 4 3 ack 40 ------- 0 6.0 0.0 8 27
r 0.747453 6 5 ack 40 ------- 0 6.0 0.0 11 30
+ 0.747453 5 4 ack 40 ------- 0 6.0 0.0 11 30
- 0.747453 5 4 ack 40 ------- 0 6.0 0.0 11 30
r 0.747683 4 5 tcp 1040 ------- 0 1.0 7.0 1 22
+ 0.747683 5 7 tcp 1040 ------- 0 1.0 7.0 1 22
- 0.747683 5 7 tcp 1040 ------- 0 1.0 7.0 1 22
r 0.747968 5 6 tcp 1040 ------- 0 0.0 6.0 12 21
+ 0.747968 6 5 ack 40 ------- 0 6.0 0.0 12 31
- 0.747968 6 5 ack 40 ------- 0 6.0 0.0 12 31
r 0.751573 5 4 ack 40 ------- 0 6.0 0.0 9 28
+ 0.751573 4 3 ack 40 ------- 0 6.0 0.0 9 28
- 0.751573 4 3 ack 40 ------- 0 6.0 0.0 9 28
r 0.753 6 5 ack 40 ------- 0 6.0 0.0 12 31
+ 0.753 5 4 ack 40 ------- 0 6.0 0.0 12 31
- 0.753 5 4 ack 40 ------- 0 6.0 0.0 12 31
r 0.753229 4 5 tcp 1040 ------- 0 0.0 6.0 13 24
+ 0.753229 5 6 tcp 1040 ------- 0 0.0 6.0 13 24
- 0.753229 5 6 tcp 1040 ------- 0 0.0 6.0 13 24
r 0.753515 5 7 tcp 1040 ------- 0 1.0 7.0 1 22
+ 0.753515 7 5 ack 40 ------- 0 7.0 1.0 1 32
- 0.753515 7 5 ack 40 ------- 0 7.0 1.0 1 32
r 0.755693 4 3 ack 40 ------- 0 6.0 0.0 7 26
+ 0.755693 3 0 ack 40 ------- 0 6.0 0.0 7 26
- 0.755693 3 0 ack 40 ------- 0 6.0 0.0 7 26
r 0.75712 5 4 ack 40 ------- 0 6.0 0.0 10 29
+ 0.75712 4 3 ack 40 ------- 0 6.0 0.0 10 29
- 0.75712 4 3 ack 40 ------- 0 6.0 0.0 10 29
r 0.758547 7 5 ack 40 ------- 0 7.0 1.0 1 32
+ 0.758547 5 4 ack 40 ------- 0 7.0 1.0 1 32
- 0.758547 5 4 ack 40 ------- 0 7.0 1.0 1 32
r 0.758776 4 5 tcp 1040 ------- 0 1.0 7.0 2 23
+ 0.758776 5 7 tcp 1040 ------- 0 1.0 7.0 2 23
- 0.758776 5 7 tcp 1040 ------- 0 1.0 7.0 2 23
r 0.759061 5 6 tcp 1040 ------- 0 0.0 6.0 13 24
+ 0.759061 6 5 ack 40 ------- 0 6.0 0.0 13 33
- 0.759061 6 5 ack 40 ------- 0 6.0 0.0 13 33
r 0.760725 3 0 ack 40 ------- 0 6.0 0.0 7 26
+ 0.760725 0 3 tcp 1040 ------- 0 0.0 6.0 15 34
- 0.760725 0 3 tcp 1040 ------- 0 0.0 6.0 15 34
+ 0.760725 0 3 tcp 1040 ------- 0 0.0 6.0 16 35
r 0.76124 4 3 ack 40 ------- 0 6.0 0.0 8 27
+ 0.76124 3 0 ack 40 ------- 0 6.0 0.0 8 27
- 0.76124 3 0 ack 40 ------- 0 6.0 0.0 8 27
- 0.761557 0 3 tcp 1040 ------- 0 0.0 6.0 16 35
r 0.762667 5 4 ack 40 ------- 0 6.0 0.0 11 30
+ 0.762667 4 3 ack 40 ------- 0 6.0 0.0 11 30
- 0.762667 4 3 ack 40 ------- 0 6.0 0.0 11 30
r 0.764093 6 5 ack 40 ------- 0 6.0 0.0 13 33
+ 0.764093 5 4 ack 40 ------- 0 6.0 0.0 13 33
- 0.764093 5 4 ack 40 ------- 0 6.0 0.0 13 33
r 0.764323 4 5 tcp 1040 ------- 0 0.0 6.0 14 25
+ 0.764323 5 6 tcp 1040 ------- 0 0.0 6.0 14 25
- 0.764323 5 6 tcp 1040 ------- 0 0.0 6.0 14 25
r 0.764608 5 7 tcp 1040 ------- 0 1.0 7.0 2 23
+ 0.764608 7 5 ack 40 ------- 0 7.0 1.0 2 36
- 0.764608 7 5 ack 40 ------- 0 7.0 1.0 2 36
r 0.766272 3 0 ack 40 ------- 0 6.0 0.0 8 27
+ 0.766272 0 3 tcp 1040 ------- 0 0.0 6.0 17 37
- 0.766272 0 3 tcp 1040 ------- 0 0.0 6.0 17 37
+ 0.766272 0 3 tcp 1040 ------- 0 0.0 6.0 18 38
r 0.766557 0 3 tcp 1040 ------- 0 0.0 6.0 15 34
+ 0.766557 3 4 tcp 1040 ------- 0 0.0 6.0 15 34
- 0.766557 3 4 tcp 1040 ------- 0 0.0 6.0 15 34
r 0.766787 4 3 ack 40 ------- 0 6.0 0.0 9 28
+ 0.766787 3 0 ack 40 ------- 0 6.0 0.0 9 28
- 0.766787 3 0 ack 40 ------- 0 6.0 0.0 9 28
- 0.767104 0 3 tcp 1040 ------- 0 0.0 6.0 18 38
r 0.767389 0 3 tcp 1040 ------- 0 0.0 6.0 16 35
+ 0.767389 3 4 tcp 1040 ------- 0 0.0 6.0 16 35
r 0.768213 5 4 ack 40 ------- 0 6.0 0.0 12 31
+ 0.768213 4 3 ack 40 ------- 0 6.0 0.0 12 31
- 0.768213 4 3 ack 40 ------- 0 6.0 0.0 12 31
r 0.76964 7 5 ack 40 ------- 0 7.0 1.0 2 36
+ 0.76964 5 4 ack 40 ------- 0 7.0 1.0 2 36
- 0.76964 5 4 ack 40 ------- 0 7.0 1.0 2 36
r 0.770155 5 6 tcp 1040 ------- 0 0.0 6.0 14 25
+ 0.770155 6 5 ack 40 ------- 0 6.0 0.0 14 39
- 0.770155 6 5 ack 40 ------- 0 6.0 0.0 14 39
r 0.771819 3 0 ack 40 ------- 0 6.0 0.0 9 28
+ 0.771819 0 3 tcp 1040 ------- 0 0.0 6.0 19 40
- 0.771819 0 3 tcp 1040 ------- 0 0.0 6.0 19 40
+ 0.771819 0 3 tcp 1040 ------- 0 0.0 6.0 20 41
r 0.772104 0 3 tcp 1040 ------- 0 0.0 6.0 17 37
+ 0.772104 3 4 tcp 1040 ------- 0 0.0 6.0 17 37
- 0.772104 3 4 tcp 1040 ------- 0 0.0 6.0 16 35
r 0.772333 4 3 ack 40 ------- 0 6.0 0.0 10 29
+ 0.772333 3 0 ack 40 ------- 0 6.0 0.0 10 29
- 0.772333 3 0 ack 40 ------- 0 6.0 0.0 10 29
- 0.772651 0 3 tcp 1040 ------- 0 0.0 6.0 20 41
r 0.772936 0 3 tcp 1040 ------- 0 0.0 6.0 18 38
+ 0.772936 3 4 tcp 1040 ------- 0 0.0 6.0 18 38
r 0.77376 5 4 ack 40 ------- 0 7.0 1.0 1 32
+ 0.77376 4 3 ack 40 ------- 0 7.0 1.0 1 32
- 0.77376 4 3 ack 40 ------- 0 7.0 1.0 1 32
r 0.775187 6 5 ack 40 ------- 0 6.0 0.0 14 39
+ 0.775187 5 4 ack 40 ------- 0 6.0 0.0 14 39
- 0.775187 5 4 ack 40 ------- 0 6.0 0.0 14 39
r 0.777365 3 0 ack 40 ------- 0 6.0 0.0 10 29
+ 0.777365 0 3 tcp 1040 ------- 0 0.0 6.0 21 42
- 0.777365 0 3 tcp 1040 ------- 0 0.0 6.0 21 42
+ 0.777365 0 3 tcp 1040 ------- 0 0.0 6.0 22 43
r 0.777651 0 3 tcp 1040 ------- 0 0.0 6.0 19 40
+ 0.777651 3 4 tcp 1040 ------- 0 0.0 6.0 19 40
- 0.777651 3 4 tcp 1040 ------- 0 0.0 6.0 17 37
r 0.77788 4 3 ack 40 ------- 0 6.0 0.0 11 30
+ 0.77788 3 0 ack 40 ------- 0 6.0 0.0 11 30
- 0.77788 3 0 ack 40 ------- 0 6.0 0.0 11 30
- 0.778197 0 3 tcp 1040 ------- 0 0.0 6.0 22 43
r 0.778483 0 3 tcp 1040 ------- 0 0.0 6.0 20 41
+ 0.778483 3 4 tcp 1040 ------- 0 0.0 6.0 20 41
r 0.779307 5 4 ack 40 ------- 0 6.0 0.0 13 33
+ 0.779307 4 3 ack 40 ------- 0 6.0 0.0 13 33
- 0.779307 4 3 ack 40 ------- 0 6.0 0.0 13 33
r 0.782912 3 0 ack 40 ------- 0 6.0 0.0 11 30
+ 0.782912 0 3 tcp 1040 ------- 0 0.0 6.0 23 44
- 0.782912 0 3 tcp 1040 ------- 0 0.0 6.0 23 44
+ 0.782912 0 3 tcp 1040 ------- 0 0.0 6.0 24 45
r 0.783197 0 3 tcp 1040 ------- 0 0.0 6.0 21 42
+ 0.783197 3 4 tcp 1040 ------- 0 0.0 6.0 21 42
- 0.783197 3 4 tcp 1040 ------- 0 0.0 6.0 18 38
r 0.783427 4 3 ack 40 ------- 0 6.0 0.0 12 31
+ 0.783427 3 0 ack 40 ------- 0 6.0 0.0 12 31
- 0.783427 3 0 ack 40 ------- 0 6.0 0.0 12 31
- 0.783744 0 3 tcp 1040 ------- 0 0.0 6.0 24 45
r 0.784029 0 3 tcp 1040 ------- 0 0.0 6.0 22 43
+ 0.784029 3 4 tcp 1040 ------- 0 0.0 6.0 22 43
r 0.784853 5 4 ack 40 ------- 0 7.0 1.0 2 36
+ 0.784853 4 3 ack 40 ------- 0 7.0 1.0 2 36
- 0.784853 4 3 ack 40 ------- 0 7.0 1.0 2 36
r 0.787104 3 4 tcp 1040 ------- 0 0.0 6.0 15 34
+ 0.787104 4 5 tcp 1040 ------- 0 0.0 6.0 15 34
- 0.787104 4 5 tcp 1040 ------- 0 0.0 6.0 15 34
r 0.788459 3 0 ack 40 ------- 0 6.0 0.0 12 31
+ 0.788459 0 3 tcp 1040 ------- 0 0.0 6.0 25 46
- 0.788459 0 3 tcp 1040 ------- 0 0.0 6.0 25 46
+ 0.788459 0 3 tcp 1040 ------- 0 0.0 6.0 26 47
r 0.788744 0 3 tcp 1040 ------- 0 0.0 6.0 23 44
+ 0.788744 3 4 tcp 1040 ------- 0 0.0 6.0 23 44
- 0.788744 3 4 tcp 1040 ------- 0 0.0 6.0 19 40
r 0.788973 4 3 ack 40 ------- 0 7.0 1.0 1 32
+ 0.788973 3 1 ack 40 ------- 0 7.0 1.0 1 32
- 0.788973 3 1 ack 40 ------- 0 7.0 1.0 1 32
- 0.789291 0 3 tcp 1040 ------- 0 0.0 6.0 26 47
r 0.789576 0 3 tcp 1040 ------- 0 0.0 6.0 24 45
+ 0.789576 3 4 tcp 1040 ------- 0 0.0 6.0 24 45
r 0.7904 5 4 ack 40 ------- 0 6.0 0.0 14 39
+ 0.7904 4 3 ack 40 ------- 0 6.0 0.0 14 39
- 0.7904 4 3 ack 40 ------- 0 6.0 0.0 14 39
r 0.792651 3 4 tcp 1040 ------- 0 0.0 6.0 16 35
+ 0.792651 4 5 tcp 1040 ------- 0 0.0 6.0 16 35
- 0.792651 4 5 tcp 1040 ------- 0 0.0 6.0 16 35
r 0.794005 3 1 ack 40 ------- 0 7.0 1.0 1 32
+ 0.794005 1 3 tcp 1040 ------- 0 1.0 7.0 3 48
- 0.794005 1 3 tcp 1040 ------- 0 1.0 7.0 3 48
+ 0.794005 1 3 tcp 1040 ------- 0 1.0 7.0 4 49
r 0.794291 0 3 tcp 1040 ------- 0 0.0 6.0 25 46
+ 0.794291 3 4 tcp 1040 ------- 0 0.0 6.0 25 46
- 0.794291 3 4 tcp 1040 ------- 0 0.0 6.0 20 41
r 0.79452 4 3 ack 40 ------- 0 6.0 0.0 13 33
+ 0.79452 3 0 ack 40 ------- 0 6.0 0.0 13 33
- 0.79452 3 0 ack 40 ------- 0 6.0 0.0 13 33
- 0.794837 1 3 tcp 1040 ------- 0 1.0 7.0 4 49
r 0.795123 0 3 tcp 1040 ------- 0 0.0 6.0 26 47
+ 0.795123 3 4 tcp 1040 ------- 0 0.0 6.0 26 47
r 0.798197 3 4 tcp 1040 ------- 0 0.0 6.0 17 37
+ 0.798197 4 5 tcp 1040 ------- 0 0.0 6.0 17 37
- 0.798197 4 5 tcp 1040 ------- 0 0.0 6.0 17 37
r 0.799552 3 0 ack 40 ------- 0 6.0 0.0 13 33
+ 0.799552 0 3 tcp 1040 ------- 0 0.0 6.0 27 50
- 0.799552 0 3 tcp 1040 ------- 0 0.0 6.0 27 50
+ 0.799552 0 3 tcp 1040 ------- 0 0.0 6.0 28 51
r 0.799837 1 3 tcp 1040 ------- 0 1.0 7.0 3 48
+ 0.799837 3 4 tcp 1040 ------- 0 1.0 7.0 3 48
- 0.799837 3 4 tcp 1040 ------- 0 0.0 6.0 21 42
+ 0.8 2 3 tcp 40 ------- 0 2.0 8.0 0 52
- 0.8 2 3 tcp 40 ------- 0 2.0 8.0 0 52
r 0.800067 4 3 ack 40 ------- 0 7.0 1.0 2 36
+ 0.800067 3 1 ack 40 ------- 0 7.0 1.0 2 36
- 0.800067 3 1 ack 40 ------- 0 7.0 1.0 2 36
- 0.800384 0 3 tcp 1040 ------- 0 0.0 6.0 28 51
r 0.800669 1 3 tcp 1040 ------- 0 1.0 7.0 4 49
+ 0.800669 3 4 tcp 1040 ------- 0 1.0 7.0 4 49
r 0.803744 3 4 tcp 1040 ------- 0 0.0 6.0 18 38
+ 0.803744 4 5 tcp 1040 ------- 0 0.0 6.0 18 38
- 0.803744 4 5 tcp 1040 ------- 0 0.0 6.0 18 38
r 0.805032 2 3 tcp 40 ------- 0 2.0 8.0 0 52
+ 0.805032 3 4 tcp 40 ------- 0 2.0 8.0 0 52
r 0.805099 3 1 ack 40 ------- 0 7.0 1.0 2 36
+ 0.805099 1 3 tcp 1040 ------- 0 1.0 7.0 5 53
- 0.805099 1 3 tcp 1040 ------- 0 1.0 7.0 5 53
+ 0.805099 1 3 tcp 1040 ------- 0 1.0 7.0 6 54
r 0.805384 0 3 tcp 1040 ------- 0 0.0 6.0 27 50
+ 0.805384 3 4 tcp 1040 ------- 0 0.0 6.0 27 50
- 0.805384 3 4 tcp 1040 ------- 0 0.0 6.0 22 43
r 0.805613 4 3 ack 40 ------- 0 6.0 0.0 14 39
+ 0.805613 3 0 ack 40 ------- 0 6.0 0.0 14 39
- 0.805613 3 0 ack 40 ------- 0 6.0 0.0 14 39
- 0.805931 1 3 tcp 1040 ------- 0 1.0 7.0 6 54
r 0.806216 0 3 tcp 1040 ------- 0 0.0 6.0 28 51
+ 0.806216 3 4 tcp 1040 ------- 0 0.0 6.0 28 51
r 0.807651 4 5 tcp 1040 ------- 0 0.0 6.0 15 34
+ 0.807651 5 6 tcp 1040 ------- 0 0.0 6.0 15 34
- 0.807651 5 6 tcp 1040 ------- 0 0.0 6.0 15 34
r 0.809291 3 4 tcp 1040 ------- 0 0.0 6.0 19 40
+ 0.809291 4 5 tcp 1040 ------- 0 0.0 6.0 19 40
- 0.809291 4 5 tcp 1040 ------- 0 0.0 6.0 19 40
r 0.810645 3 0 ack 40 ------- 0 6.0 0.0 14 39
+ 0.810645 0 3 tcp 1040 ------- 0 0.0 6.0 29 55
- 0.810645 0 3 tcp 1040 ------- 0 0.0 6.0 29 55
+ 0.810645 0 3 tcp 1040 ------- 0 0.0 6.0 30 56
r 0.810931 1 3 tcp 1040 ------- 0 1.0 7.0 5 53
+ 0.810931 3 4 tcp 1040 ------- 0 1.0 7.0 5 53
- 0.810931 3 4 tcp 1040 ------- 0 0.0 6.0 23 44
- 0.811477 0 3 tcp 1040 ------- 0 0.0 6.0 30 56
r 0.811763 1 3 tcp 1040 ------- 0 1.0 7.0 6 54
+ 0.811763 3 4 tcp 1040 ------- 0 1.0 7.0 6 54
r 0.813197 4 5 tcp 1040 ------- 0 0.0 6.0 16 35
+ 0.813197 5 6 tcp 1040 ------- 0 0.0 6.0 16 35
- 0.813197 5 6 tcp 1040 ------- 0 0.0 6.0 16 35
r 0.813483 5 6 tcp 1040 ------- 0 0.0 6.0 15 34
+ 0.813483 6 5 ack 40 ------- 0 6.0 0.0 15 57
- 0.813483 6 5 ack 40 ------- 0 6.0 0.0 15 57
r 0.814837 3 4 tcp 1040 ------- 0 0.0 6.0 20 41
+ 0.814837 4 5 tcp 1040 ------- 0 0.0 6.0 20 41
- 0.814837 4 5 tcp 1040 ------- 0 0.0 6.0 20 41
r 0.816477 0 3 tcp 1040 ------- 0 0.0 6.0 29 55
+ 0.816477 3 4 tcp 1040 ------- 0 0.0 6.0 29 55
- 0.816477 3 4 tcp 1040 ------- 0 0.0 6.0 24 45
r 0.817309 0 3 tcp 1040 ------- 0 0.0 6.0 30 56
+ 0.817309 3 4 tcp 1040 ------- 0 0.0 6.0 30 56
r 0.818515 6 5 ack 40 ------- 0 6.0 0.0 15 57
+ 0.818515 5 4 ack 40 ------- 0 6.0 0.0 15 57
- 0.818515 5 4 ack 40 ------- 0 6.0 0.0 15 57
r 0.818744 4 5 tcp 1040 ------- 0 0.0 6.0 17 37
+ 0.818744 5 6 tcp 1040 ------- 0 0.0 6.0 17 37
- 0.818744 5 6 tcp 1040 ------- 0 0.0 6.0 17 37
r 0.819029 5 6 tcp 1040 ------- 0 0.0 6.0 16 35
+ 0.819029 6 5 ack 40 ------- 0 6.0 0.0 16 58
- 0.819029 6 5 ack 40 ------- 0 6.0 0.0 16 58
r 0.820384 3 4 tcp 1040 ------- 0 0.0 6.0 21 42
+ 0.820384 4 5 tcp 1040 ------- 0 0.0 6.0 21 42
- 0.820384 4 5 tcp 1040 ------- 0 0.0 6.0 21 42
- 0.822024 3 4 tcp 1040 ------- 0 0.0 6.0 25 46
r 0.824061 6 5 ack 40 ------- 0 6.0 0.0 16 58
+ 0.824061 5 4 ack 40 ------- 0 6.0 0.0 16 58
- 0.824061 5 4 ack 40 ------- 0 6.0 0.0 16 58
r 0.824291 4 5 tcp 1040 ------- 0 0.0 6.0 18 38
+ 0.824291 5 6 tcp 1040 ------- 0 0.0 6.0 18 38
- 0.824291 5 6 tcp 1040 ------- 0 0.0 6.0 18 38
r 0.824576 5 6 tcp 1040 ------- 0 0.0 6.0 17 37
+ 0.824576 6 5 ack 40 ------- 0 6.0 0.0 17 59
- 0.824576 6 5 ack 40 ------- 0 6.0 0.0 17 59
r 0.825931 3 4 tcp 1040 ------- 0 0.0 6.0 22 43
+ 0.825931 4 5 tcp 1040 ------- 0 0.0 6.0 22 43
- 0.825931 4 5 tcp 1040 ------- 0 0.0 6.0 22 43
- 0.827571 3 4 tcp 1040 ------- 0 0.0 6.0 26 47
r 0.829608 6 5 ack 40 ------- 0 6.0 0.0 17 59
+ 0.829608 5 4 ack 40 ------- 0 6.0 0.0 17 59
- 0.829608 5 4 ack 40 ------- 0 6.0 0.0 17 59
r 0.829837 4 5 tcp 1040 ------- 0 0.0 6.0 19 40
+ 0.829837 5 6 tcp 1040 ------- 0 0.0 6.0 19 40
- 0.829837 5 6 tcp 1040 ------- 0 0.0 6.0 19 40
r 0.830123 5 6 tcp 1040 ------- 0 0.0 6.0 18 38
+ 0.830123 6 5 ack 40 ------- 0 6.0 0.0 18 60
- 0.830123 6 5 ack 40 ------- 0 6.0 0.0 18 60
r 0.831477 3 4 tcp 1040 ------- 0 0.0 6.0 23 44
+ 0.831477 4 5 tcp 1040 ------- 0 0.0 6.0 23 44
- 0.831477 4 5 tcp 1040 ------- 0 0.0 6.0 23 44
- 0.833117 3 4 tcp 1040 ------- 0 1.0 7.0 3 48
r 0.833728 5 4 ack 40 ------- 0 6.0 0.0 15 57
+ 0.833728 4 3 ack 40 ------- 0 6.0 0.0 15 57
- 0.833728 4 3 ack 40 ------- 0 6.0 0.0 15 57
r 0.835155 6 5 ack 40 ------- 0 6.0 0.0 18 60
+ 0.835155 5 4 ack 40 ------- 0 6.0 0.0 18 60
- 0.835155 5 4 ack 40 ------- 0 6.0 0.0 18 60
r 0.835384 4 5 tcp 1040 ------- 0 0.0 6.0 20 41
+ 0.835384 5 6 tcp 1040 ------- 0 0.0 6.0 20 41
- 0.835384 5 6 tcp 1040 ------- 0 0.0 6.0 20 41
r 0.835669 5 6 tcp 1040 ------- 0 0.0 6.0 19 40
+ 0.835669 6 5 ack 40 ------- 0 6.0 0.0 19 61
- 0.835669 6 5 ack 40 ------- 0 6.0 0.0 19 61
r 0.837024 3 4 tcp 1040 ------- 0 0.0 6.0 24 45
+ 0.837024 4 5 tcp 1040 ------- 0 0.0 6.0 24 45
- 0.837024 4 5 tcp 1040 ------- 0 0.0 6.0 24 45
- 0.838664 3 4 tcp 1040 ------- 0 1.0 7.0 4 49
r 0.839275 5 4 ack 40 ------- 0 6.0 0.0 16 58
+ 0.839275 4 3 ack 40 ------- 0 6.0 0.0 16 58
- 0.839275 4 3 ack 40 ------- 0 6.0 0.0 16 58
r 0.840701 6 5 ack 40 ------- 0 6.0 0.0 19 61
+ 0.840701 5 4 ack 40 ------- 0 6.0 0.0 19 61
- 0.840701 5 4 ack 40 ------- 0 6.0 0.0 19 61
r 0.840931 4 5 tcp 1040 ------- 0 0.0 6.0 21 42
+ 0.840931 5 6 tcp 1040 ------- 0 0.0 6.0 21 42
- 0.840931 5 6 tcp 1040 ------- 0 0.0 6.0 21 42
r 0.841216 5 6 tcp 1040 ------- 0 0.0 6.0 20 41
+ 0.841216 6 5 ack 40 ------- 0 6.0 0.0 20 62
- 0.841216 6 5 ack 40 ------- 0 6.0 0.0 20 62
r 0.842571 3 4 tcp 1040 ------- 0 0.0 6.0 25 46
+ 0.842571 4 5 tcp 1040 ------- 0 0.0 6.0 25 46
- 0.842571 4 5 tcp 1040 ------- 0 0.0 6.0 25 46
- 0.844211 3 4 tcp 40 ------- 0 2.0 8.0 0 52
- 0.844424 3 4 tcp 1040 ------- 0 0.0 6.0 27 50
r 0.844821 5 4 ack 40 ------- 0 6.0 0.0 17 59
+ 0.844821 4 3 ack 40 ------- 0 6.0 0.0 17 59
- 0.844821 4 3 ack 40 ------- 0 6.0 0.0 17 59
r 0.846248 6 5 ack 40 ------- 0 6.0 0.0 20 62
+ 0.846248 5 4 ack 40 ------- 0 6.0 0.0 20 62
- 0.846248 5 4 ack 40 ------- 0 6.0 0.0 20 62
r 0.846477 4 5 tcp 1040 ------- 0 0.0 6.0 22 43
+ 0.846477 5 6 tcp 1040 ------- 0 0.0 6.0 22 43
- 0.846477 5 6 tcp 1040 ------- 0 0.0 6.0 22 43
r 0.846763 5 6 tcp 1040 ------- 0 0.0 6.0 21 42
+ 0.846763 6 5 ack 40 ------- 0 6.0 0.0 21 63
- 0.846763 6 5 ack 40 ------- 0 6.0 0.0 21 63
r 0.848117 3 4 tcp 1040 ------- 0 0.0 6.0 26 47
+ 0.848117 4 5 tcp 1040 ------- 0 0.0 6.0 26 47
- 0.848117 4 5 tcp 1040 ------- 0 0.0 6.0 26 47
r 0.848941 4 3 ack 40 ------- 0 6.0 0.0 15 57
+ 0.848941 3 0 ack 40 ------- 0 6.0 0.0 15 57
- 0.848941 3 0 ack 40 ------- 0 6.0 0.0 15 57
- 0.849971 3 4 tcp 1040 ------- 0 0.0 6.0 28 51
r 0.850368 5 4 ack 40 ------- 0 6.0 0.0 18 60
+ 0.850368 4 3 ack 40 ------- 0 6.0 0.0 18 60
- 0.850368 4 3 ack 40 ------- 0 6.0 0.0 18 60
r 0.851795 6 5 ack 40 ------- 0 6.0 0.0 21 63